# vtk DataFile Version 2.0
Temperature_data
ASCII
DATASET STRUCTURED_POINTS
DIMENSIONS 18 18 10
SPACING 1.0 1.0 1.0
ORIGIN 0.0 0.0 0.0
POINT_DATA 3240
SCALARS temperature float
LOOKUP_TABLE default

0.10000000E+01
0.96875000E+00
0.90625000E+00
0.84375000E+00
0.78125000E+00
0.71875000E+00
0.65625000E+00
0.59375000E+00
0.53125000E+00
0.46875000E+00
0.40625000E+00
0.34375000E+00
0.28125000E+00
0.21875000E+00
0.15625000E+00
0.93750000E-01
0.31250000E-01
0.00000000E+00
0.10000000E+01
0.96875000E+00
0.90625000E+00
0.84375000E+00
0.78125000E+00
0.71875000E+00
0.65625000E+00
0.59375000E+00
0.53125000E+00
0.46875000E+00
 0.40625000E+00
 0.34375000E+00
 0.28125000E+00
 0.21875000E+00
 0.15625000E+00
 0.93750000E-01
 0.31250000E-01
 0.00000000E+00
 0.10000000E+01
 0.96875000E+00
 0.90625000E+00
 0.84375000E+00
 0.78125000E+00
 0.71875000E+00
 0.65625000E+00
 0.59375000E+00
 0.53125000E+00
 0.46875000E+00
 0.40625000E+00
 0.34375000E+00
 0.28125000E+00
 0.21875000E+00
 0.15625000E+00

 0.93750000E-01
 0.31250000E-01
 0.00000000E+00
 0.10000000E+01
 0.96875000E+00
 0.90625000E+00
 0.84375000E+00
 0.78125000E+00
 0.71875000E+00
 0.65625000E+00
 0.59375000E+00
 0.53125000E+00
 0.46875000E+00
 0.40625000E+00
 0.34375000E+00
 0.28125000E+00
 0.21875000E+00
 0.15625000E+00
 0.93750000E-01
 0.31250000E-01
 0.00000000E+00
 0.10000000E+01
 0.96875000E+00
 0.90625000E+00
 0.84375000E+00
 0.78125000E+00
 0.71875000E+00
 0.65625000E+00
 0.59375000E+00
 0.53125000E+00
 0.46875000E+00
 0.40625000E+00
 0.34375000E+00
 0.28125000E+00
 0.21875000E+00
 0.15625000E+00
 0.93750000E-01
 0.31250000E-01
 0.00000000E+00
 0.10000000E+01
 0.96875000E+00
 0.90625000E+00
 0.84375000E+00
 0.78125000E+00
 0.71875000E+00
 0.65625000E+00
 0.59375000E+00
 0.53125000E+00
 0.46875000E+00
 0.40625000E+00
 0.34375000E+00
 0.28125000E+00
 0.21875000E+00
 0.15625000E+00
 0.93750000E-01
 0.31250000E-01
 0.00000000E+00
 0.10000000E+01
 0.96875000E+00
 0.90625000E+00
 0.84375000E+00
 0.78125000E+00
 0.71875000E+00
 0.65625000E+00
 0.59375000E+00
 0.53125000E+00
 0.46875000E+00
 0.40625000E+00
 0.34375000E+00
 0.28125000E+00
 0.21875000E+00
 0.15625000E+00
 0.93750000E-01
 0.31250000E-01
 0.00000000E+00
 0.10000000E+01
 0.96875000E+00
 0.90625000E+00
 0.84375000E+00
 0.78125000E+00
 0.71875000E+00
 0.65625000E+00
 0.59375000E+00
 0.53125000E+00
 0.46875000E+00
 0.40625000E+00
 0.34375000E+00
 0.28125000E+00
 0.21875000E+00
 0.15625000E+00
 0.93750000E-01
 0.31250000E-01
 0.00000000E+00
 0.10000000E+01
 0.96875000E+00
 0.90625000E+00
 0.84375000E+00
 0.78125000E+00
 0.71875000E+00
 0.65625000E+00
 0.59375000E+00
 0.53125000E+00
 0.46875000E+00
 0.40625000E+00
 0.34375000E+00
 0.28125000E+00
 0.21875000E+00
 0.15625000E+00
 0.93750000E-01
 0.31250000E-01
 0.00000000E+00
 0.10000000E+01
 0.96875000E+00
 0.90625000E+00
 0.84375000E+00
 0.78125000E+00
 0.71875000E+00
 0.65625000E+00
 0.59375000E+00
 0.53125000E+00
 0.46875000E+00
 0.40625000E+00
 0.34375000E+00
 0.28125000E+00
 0.21875000E+00
 0.15625000E+00
 0.93750000E-01
 0.31250000E-01
 0.00000000E+00
 0.10000000E+01
 0.96875000E+00
 0.90625000E+00
 0.84375000E+00
 0.78125000E+00
 0.71875000E+00
 0.65625000E+00
 0.59375000E+00
 0.53125000E+00
 0.46875000E+00
 0.40625000E+00
 0.34375000E+00
 0.28125000E+00
 0.21875000E+00
 0.15625000E+00
 0.93750000E-01
 0.31250000E-01
 0.00000000E+00
 0.10000000E+01
 0.96875000E+00
 0.90625000E+00
 0.84375000E+00
 0.78125000E+00
 0.71875000E+00
 0.65625000E+00
 0.59375000E+00
 0.53125000E+00
 0.46875000E+00
 0.40625000E+00
 0.34375000E+00
 0.28125000E+00
 0.21875000E+00
 0.15625000E+00
 0.93750000E-01
 0.31250000E-01
 0.00000000E+00
 0.10000000E+01
 0.96875000E+00
 0.90625000E+00
 0.84375000E+00
 0.78125000E+00
 0.71875000E+00
 0.65625000E+00
 0.59375000E+00
 0.53125000E+00
 0.46875000E+00
 0.40625000E+00
 0.34375000E+00
 0.28125000E+00
 0.21875000E+00
 0.15625000E+00
 0.93750000E-01
 0.31250000E-01
 0.00000000E+00
 0.10000000E+01
 0.96875000E+00
 0.90625000E+00
 0.84375000E+00
 0.78125000E+00
 0.71875000E+00
 0.65625000E+00
 0.59375000E+00
 0.53125000E+00
 0.46875000E+00
 0.40625000E+00
 0.34375000E+00
 0.28125000E+00
 0.21875000E+00
 0.15625000E+00
 0.93750000E-01
 0.31250000E-01
 0.00000000E+00
 0.10000000E+01
 0.96875000E+00
 0.90625000E+00
 0.84375000E+00
 0.78125000E+00
 0.71875000E+00
 0.65625000E+00
 0.59375000E+00
 0.53125000E+00
 0.46875000E+00
 0.40625000E+00
 0.34375000E+00
 0.28125000E+00
 0.21875000E+00
 0.15625000E+00
 0.93750000E-01
 0.31250000E-01
 0.00000000E+00
 0.10000000E+01
 0.96875000E+00
 0.90625000E+00
 0.84375000E+00
 0.78125000E+00
 0.71875000E+00
 0.65625000E+00
 0.59375000E+00
 0.53125000E+00
 0.46875000E+00
 0.40625000E+00
 0.34375000E+00
 0.28125000E+00
 0.21875000E+00
 0.15625000E+00
 0.93750000E-01
 0.31250000E-01
 0.00000000E+00
 0.10000000E+01
 0.96875000E+00
 0.90625000E+00
 0.84375000E+00
 0.78125000E+00
 0.71875000E+00
 0.65625000E+00
 0.59375000E+00
 0.53125000E+00
 0.46875000E+00
 0.40625000E+00
 0.34375000E+00
 0.28125000E+00
 0.21875000E+00
 0.15625000E+00
 0.93750000E-01
 0.31250000E-01
 0.00000000E+00
 0.10000000E+01

 0.96875000E+00
 0.90625000E+00
 0.84375000E+00
 0.78125000E+00
 0.71875000E+00
 0.65625000E+00
 0.59375000E+00
 0.53125000E+00
 0.46875000E+00
 0.40625000E+00
 0.34375000E+00
 0.28125000E+00
 0.21875000E+00
 0.15625000E+00
 0.93750000E-01
 0.31250000E-01
 0.00000000E+00
 0.10000000E+01
 0.96875000E+00
 0.90625000E+00
 0.84375000E+00
 0.78125000E+00
 0.71875000E+00
 0.65625000E+00
 0.59375000E+00
 0.53125000E+00
 0.46875000E+00
 0.40625000E+00
 0.34375000E+00
 0.28125000E+00
 0.21875000E+00
 0.15625000E+00
 0.93750000E-01
 0.31250000E-01
 0.00000000E+00
 0.10000000E+01
 0.86484446E+00
 0.75338749E+00
 0.68496766E+00
 0.62681379E+00
 0.57107172E+00
 0.51639265E+00
 0.46215039E+00
 0.40815425E+00
 0.35467678E+00
 0.30310834E+00
 0.25741686E+00
 0.21768065E+00
 0.18103351E+00
 0.14508640E+00
 0.10522344E+00
 0.55406323E-01
 0.00000000E+00
 0.10000000E+01
 0.83291852E+00
 0.68524962E+00
 0.61249261E+00
 0.56280566E+00
 0.51862619E+00
 0.47580478E+00
 0.43303752E+00
 0.38994170E+00
 0.34752875E+00
 0.31038500E+00
 0.28172897E+00
 0.25422655E+00
 0.22426710E+00
 0.18960579E+00
 0.14330514E+00
 0.74147200E-01
 0.00000000E+00
 0.10000000E+01
 0.82299717E+00
 0.66480003E+00
 0.59317518E+00
 0.54788929E+00
 0.50942709E+00
 0.47357328E+00
 0.43912883E+00
 0.40614798E+00
 0.37560083E+00
 0.34903721E+00
 0.32503739E+00
 0.29836765E+00
 0.26685448E+00
 0.22848784E+00
 0.17373734E+00
 0.85823509E-01
 0.00000000E+00
 0.10000000E+01
 0.82399826E+00
 0.66361767E+00
 0.59385123E+00
 0.55087922E+00
 0.51518648E+00
 0.48315311E+00
 0.45374429E+00
 0.42717739E+00
 0.40362598E+00
 0.38267020E+00
 0.35860043E+00
 0.33136022E+00
 0.29887062E+00
 0.25870462E+00
 0.19850935E+00
 0.95325591E-01
 0.00000000E+00
 0.10000000E+01
 0.82983991E+00
 0.67062164E+00
 0.60272598E+00
 0.56122458E+00
 0.52706164E+00
 0.49707546E+00
 0.47018454E+00
 0.44642939E+00
 0.42526136E+00
 0.40594109E+00
 0.38210248E+00
 0.35483050E+00
 0.32261984E+00
 0.28243838E+00
 0.21933689E+00
 0.10406055E+00
 0.00000000E+00
 0.10000000E+01
 0.83845406E+00
 0.68216802E+00
 0.61619517E+00
 0.57591221E+00
 0.54279064E+00
 0.51403577E+00
 0.48833900E+00
 0.46530443E+00
 0.44344208E+00
 0.42468337E+00
 0.40046684E+00
 0.37329093E+00
 0.34169259E+00
 0.30215694E+00
 0.23774911E+00
 0.11269658E+00
 0.00000000E+00
 0.10000000E+01
 0.84830372E+00
 0.69587636E+00
 0.63177228E+00
 0.59269488E+00
 0.56046836E+00
 0.53249711E+00
 0.50630066E+00
 0.48226921E+00
 0.46059040E+00
 0.44191812E+00
 0.41701155E+00
 0.38939663E+00
 0.35817204E+00
 0.31956232E+00
 0.25473640E+00
 0.12169610E+00
 0.00000000E+00
 0.10000000E+01
 0.85838208E+00
 0.71166255E+00
 0.64835353E+00
 0.60968723E+00
 0.57784521E+00
 0.54970984E+00
 0.52326940E+00
 0.49975516E+00
 0.48175715E+00
 0.45955504E+00
 0.43344162E+00
 0.40538165E+00
 0.37388667E+00
 0.33565099E+00
 0.27130067E+00
 0.13146820E+00
 0.00000000E+00
 0.10000000E+01
 0.86834153E+00
 0.72831642E+00
 0.66395906E+00
 0.62567384E+00
 0.59415425E+00
 0.56608925E+00
 0.53998357E+00
 0.51779792E+00
 0.49978113E+00
 0.47626025E+00
 0.44981055E+00
 0.42168730E+00
 0.38988028E+00
 0.35128303E+00
 0.28803131E+00
 0.14140925E+00
 0.00000000E+00
 0.10000000E+01
 0.87811494E+00
 0.74485489E+00
 0.67998147E+00
 0.64137985E+00
 0.61014406E+00
 0.58252744E+00
 0.55762001E+00
 0.53891182E+00
 0.51725173E+00
 0.49321719E+00
 0.46701289E+00
 0.43906350E+00
 0.40688528E+00
 0.36789618E+00
 0.30386047E+00
 0.15145945E+00
 0.00000000E+00
 0.10000000E+01
 0.88711646E+00
 0.76182832E+00
 0.69736532E+00
 0.65781155E+00
 0.62624787E+00
 0.59907409E+00
 0.57488361E+00
 0.55608715E+00
 0.53420949E+00
 0.51117043E+00
 0.48548230E+00
 0.45675364E+00
 0.42368085E+00
 0.38347706E+00
 0.31756981E+00
 0.16131641E+00
 0.00000000E+00
 0.10000000E+01
 0.89575541E+00
 0.78024082E+00
 0.71707491E+00
 0.67688194E+00
 0.64469134E+00
 0.61741824E+00
 0.59357285E+00
 0.57425380E+00
 0.55308709E+00
 0.52933700E+00
 0.50245772E+00
 0.47249722E+00
 0.43837931E+00
 0.39694841E+00
 0.32911380E+00
 0.16993847E+00
 0.00000000E+00
 0.10000000E+01
 0.90449469E+00
 0.80108726E+00
 0.74082023E+00
 0.70063953E+00

 0.66815250E+00
 0.64090638E+00
 0.61682763E+00
 0.59589233E+00
 0.57235912E+00
 0.54580367E+00
 0.51640589E+00
 0.48439317E+00
 0.44873803E+00
 0.40582619E+00
 0.33611730E+00
 0.17579177E+00
 0.00000000E+00
 0.10000000E+01
 0.91400387E+00
 0.82590139E+00
 0.77108007E+00
 0.73269442E+00
 0.70117178E+00
 0.67449570E+00
 0.65047714E+00
 0.62397571E+00
 0.59345423E+00
 0.56048147E+00
 0.52603986E+00
 0.49019596E+00
 0.45175823E+00
 0.40651809E+00
 0.33494506E+00
 0.17681325E+00
 0.00000000E+00
 0.10000000E+01
 0.92569394E+00
 0.85640547E+00
 0.81005092E+00
 0.77537631E+00
 0.74541371E+00
 0.71792151E+00
 0.68931538E+00
 0.65221235E+00
 0.60979471E+00
 0.56668486E+00
 0.52390588E+00
 0.48108159E+00
 0.43691223E+00
 0.38725311E+00
 0.31453499E+00
 0.16693062E+00
 0.00000000E+00
 0.10000000E+01
 0.94447823E+00
 0.89461305E+00
 0.85473689E+00
 0.81880027E+00
 0.78217309E+00
 0.74246847E+00
 0.69681310E+00
 0.64524364E+00
 0.59175120E+00
 0.53773899E+00
 0.48348496E+00
 0.42879932E+00
 0.37305501E+00
 0.31490561E+00
 0.24649881E+00
 0.13507576E+00
 0.00000000E+00
 0.10000000E+01
 0.96875000E+00
 0.90625000E+00
 0.84375000E+00
 0.78125000E+00
 0.71875000E+00
 0.65625000E+00
 0.59375000E+00
 0.53125000E+00
 0.46875000E+00
 0.40625000E+00
 0.34375000E+00
 0.28125000E+00
 0.21875000E+00
 0.15625000E+00
 0.93750000E-01
 0.31250000E-01
 0.00000000E+00
 0.10000000E+01
 0.96875000E+00
 0.90625000E+00
 0.84375000E+00
 0.78125000E+00
 0.71875000E+00
 0.65625000E+00
 0.59375000E+00
 0.53125000E+00
 0.46875000E+00
 0.40625000E+00
 0.34375000E+00
 0.28125000E+00
 0.21875000E+00
 0.15625000E+00
 0.93750000E-01
 0.31250000E-01
 0.00000000E+00
 0.10000000E+01
 0.80041622E+00
 0.66909821E+00
 0.59901834E+00
 0.54213533E+00
 0.48869064E+00
 0.43753033E+00
 0.38907061E+00
 0.34408185E+00
 0.30329100E+00
 0.26760568E+00
 0.23632746E+00
 0.20893465E+00
 0.18364249E+00
 0.15840506E+00
 0.12789019E+00
 0.82972624E-01
 0.00000000E+00
 0.10000000E+01
 0.72376344E+00
 0.51855460E+00
 0.44170757E+00
 0.40372961E+00
 0.37539388E+00
 0.35014288E+00
 0.32764693E+00
 0.30831114E+00
 0.29289924E+00
 0.28136373E+00
 0.27236945E+00
 0.26222128E+00
 0.24855287E+00
 0.22893649E+00
 0.19365446E+00
 0.12189350E+00
 0.00000000E+00
 0.10000000E+01
 0.69684409E+00
 0.47599582E+00
 0.40541272E+00
 0.37754506E+00
 0.36081669E+00
 0.34849865E+00
 0.33962017E+00
 0.33425443E+00
 0.33221835E+00
 0.33209238E+00
 0.32942005E+00
 0.32283495E+00
 0.31076316E+00
 0.29089508E+00
 0.24810818E+00
 0.14733609E+00
 0.00000000E+00
 0.10000000E+01
 0.69332567E+00
 0.47042068E+00
 0.40507246E+00
 0.38257981E+00
 0.37118788E+00
 0.36462173E+00
 0.36171202E+00
 0.36270204E+00
 0.36718488E+00
 0.37307575E+00
 0.37364954E+00
 0.36955132E+00
 0.35984827E+00
 0.34256651E+00
 0.29615388E+00
 0.16837779E+00
 0.00000000E+00
 0.10000000E+01
 0.69963683E+00
 0.47819554E+00
 0.41710247E+00
 0.39857672E+00
 0.39049032E+00
 0.38676981E+00
 0.38615860E+00
 0.38912915E+00
 0.39544109E+00
 0.40405103E+00
 0.40661601E+00
 0.40504688E+00
 0.39888756E+00
 0.38642531E+00
 0.33944221E+00
 0.18739006E+00
 0.00000000E+00
 0.10000000E+01
 0.71145296E+00
 0.49304285E+00
 0.43548123E+00
 0.42022813E+00
 0.41466706E+00
 0.41284668E+00
 0.41339850E+00
 0.41699780E+00
 0.42361941E+00
 0.43222557E+00
 0.43473068E+00
 0.43493016E+00
 0.43234383E+00
 0.42489410E+00
 0.37877480E+00
 0.20535098E+00
 0.00000000E+00
 0.10000000E+01
 0.72586356E+00
 0.51124761E+00
 0.45693726E+00
 0.44488163E+00
 0.44171450E+00
 0.44176893E+00
 0.44418990E+00
 0.44817878E+00
 0.45318440E+00
 0.46148720E+00
 0.46306910E+00
 0.46422492E+00
 0.46368980E+00
 0.45934036E+00
 0.41376341E+00
 0.22283117E+00
 0.00000000E+00
 0.10000000E+01
 0.74200082E+00
 0.53186073E+00
 0.48146633E+00
 0.47336988E+00
 0.47246848E+00
 0.47412155E+00
 0.47608042E+00
 0.47966964E+00
 0.48744820E+00
 0.49187142E+00
 0.49309075E+00
 0.49480807E+00
 0.49487261E+00
 0.48986138E+00
 0.44387959E+00
 0.24004029E+00
 0.00000000E+00
 0.10000000E+01
 0.75938309E+00
 0.55554898E+00
 0.50957749E+00
 0.50446882E+00
 0.50449101E+00
 0.50619195E+00
 0.50741971E+00
 0.51177646E+00

 0.51961380E+00
 0.52320336E+00
 0.52515440E+00
 0.52683468E+00
 0.52598340E+00
 0.51798040E+00
 0.46754945E+00
 0.25744548E+00
 0.00000000E+00
 0.10000000E+01
 0.77667985E+00
 0.58552330E+00
 0.54006284E+00
 0.53564528E+00
 0.53508109E+00
 0.53622810E+00
 0.53778888E+00
 0.54610735E+00
 0.55110071E+00
 0.55508047E+00
 0.55752033E+00
 0.55760517E+00
 0.55448059E+00
 0.54247849E+00
 0.48817376E+00
 0.27360434E+00
 0.00000000E+00
 0.10000000E+01
 0.79421426E+00
 0.62049267E+00
 0.57442390E+00
 0.56697263E+00
 0.56438816E+00
 0.56458026E+00
 0.56705060E+00
 0.57566834E+00
 0.58228870E+00
 0.58589037E+00
 0.58645765E+00
 0.58466865E+00
 0.57914932E+00
 0.56394452E+00
 0.50639390E+00
 0.28804108E+00
 0.00000000E+00
 0.10000000E+01
 0.81221866E+00
 0.65985235E+00
 0.61287065E+00
 0.60043299E+00
 0.59427574E+00
 0.59269531E+00
 0.59523609E+00
 0.60386421E+00
 0.61018035E+00
 0.61315765E+00
 0.61255907E+00
 0.60886378E+00
 0.60081378E+00
 0.58233150E+00
 0.52125568E+00
 0.29988592E+00
 0.00000000E+00
 0.10000000E+01
 0.83126839E+00
 0.70321029E+00
 0.65676290E+00
 0.63949826E+00
 0.62979094E+00
 0.62567871E+00
 0.62623433E+00
 0.63214402E+00
 0.63664321E+00
 0.63764371E+00
 0.63474331E+00
 0.62819359E+00
 0.61682848E+00
 0.59437217E+00
 0.52904821E+00
 0.30623353E+00
 0.00000000E+00
 0.10000000E+01
 0.85234663E+00
 0.75136013E+00
 0.70852258E+00
 0.68865516E+00
 0.67657430E+00
 0.66997685E+00
 0.66729217E+00
 0.66718271E+00
 0.66516627E+00
 0.65981247E+00
 0.65093811E+00
 0.63862390E+00
 0.62190600E+00
 0.59406164E+00
 0.52350850E+00
 0.30276881E+00
 0.00000000E+00
 0.10000000E+01
 0.87783357E+00
 0.80594805E+00
 0.77062581E+00
 0.75100558E+00
 0.73733444E+00
 0.72718786E+00
 0.71820386E+00
 0.70668140E+00
 0.69128104E+00
 0.67194841E+00
 0.64944610E+00
 0.62418415E+00
 0.59584104E+00
 0.55786759E+00
 0.48104345E+00
 0.27594277E+00
 0.00000000E+00
 0.10000000E+01
 0.91684388E+00
 0.87190071E+00
 0.84138356E+00
 0.81616013E+00
 0.79088485E+00
 0.76351304E+00
 0.73225462E+00
 0.69659329E+00
 0.65581261E+00
 0.61082628E+00
 0.56236214E+00
 0.51119155E+00
 0.45773180E+00
 0.40083549E+00
 0.33075188E+00
 0.19946519E+00
 0.00000000E+00
 0.10000000E+01
 0.96875000E+00
 0.90625000E+00
 0.84375000E+00
 0.78125000E+00
 0.71875000E+00
 0.65625000E+00
 0.59375000E+00
 0.53125000E+00
 0.46875000E+00
 0.40625000E+00
 0.34375000E+00
 0.28125000E+00
 0.21875000E+00
 0.15625000E+00
 0.93750000E-01
 0.31250000E-01
 0.00000000E+00
 0.10000000E+01
 0.96875000E+00
 0.90625000E+00
 0.84375000E+00
 0.78125000E+00
 0.71875000E+00
 0.65625000E+00
 0.59375000E+00
 0.53125000E+00
 0.46875000E+00
 0.40625000E+00
 0.34375000E+00
 0.28125000E+00
 0.21875000E+00
 0.15625000E+00
 0.93750000E-01
 0.31250000E-01
 0.00000000E+00
 0.10000000E+01
 0.78140670E+00
 0.64598389E+00
 0.57640583E+00
 0.52083847E+00
 0.46898796E+00
 0.41951062E+00
 0.37309463E+00
 0.33046406E+00
 0.29208409E+00
 0.25813315E+00
 0.22834834E+00
 0.20285596E+00
 0.18047971E+00
 0.15886627E+00
 0.13270257E+00
 0.92828772E-01
 0.00000000E+00
 0.10000000E+01
 0.68099534E+00
 0.45605615E+00
 0.38135113E+00
 0.35109459E+00
 0.33096156E+00
 0.31349409E+00
 0.29818844E+00
 0.28516632E+00
 0.27480113E+00
 0.26694600E+00
 0.26132943E+00
 0.25700936E+00
 0.24951764E+00
 0.23602377E+00
 0.20672154E+00
 0.14052251E+00
 0.00000000E+00
 0.10000000E+01
 0.64613748E+00
 0.40808530E+00
 0.34381212E+00
 0.32521977E+00
 0.31711945E+00
 0.31237804E+00
 0.31008550E+00
 0.31033263E+00
 0.31304027E+00
 0.31742550E+00
 0.32134788E+00
 0.32214340E+00
 0.31774150E+00
 0.30475374E+00
 0.26780682E+00
 0.17063468E+00
 0.00000000E+00
 0.10000000E+01
 0.64252607E+00
 0.40596162E+00
 0.34880418E+00
 0.33595736E+00
 0.33261074E+00
 0.33250510E+00
 0.33487750E+00
 0.34027134E+00
 0.34869193E+00
 0.35942388E+00
 0.36813734E+00
 0.37293781E+00
 0.37226715E+00
 0.36276016E+00
 0.32230135E+00
 0.19475395E+00
 0.00000000E+00
 0.10000000E+01
 0.65094148E+00
 0.41809116E+00
 0.36682236E+00
 0.35887530E+00
 0.35874224E+00
 0.36063483E+00
 0.36400714E+00
 0.36997998E+00
 0.37883750E+00
 0.39081546E+00
 0.40229616E+00
 0.41050333E+00

 0.41448432E+00
 0.41143758E+00
 0.37176317E+00
 0.21611730E+00
 0.00000000E+00
 0.10000000E+01
 0.66589048E+00
 0.43758925E+00
 0.39095461E+00
 0.38740901E+00
 0.39031582E+00
 0.39393828E+00
 0.39756540E+00
 0.40304097E+00
 0.41058281E+00
 0.42166617E+00
 0.43182471E+00
 0.44082955E+00
 0.44835223E+00
 0.45269949E+00
 0.41660730E+00
 0.23617573E+00
 0.00000000E+00
 0.10000000E+01
 0.68353097E+00
 0.46028725E+00
 0.41837241E+00
 0.41942316E+00
 0.42493219E+00
 0.42991916E+00
 0.43410381E+00
 0.43982298E+00
 0.44664924E+00
 0.45674851E+00
 0.46384665E+00
 0.47160186E+00
 0.47992322E+00
 0.48851084E+00
 0.45583960E+00
 0.25587216E+00
 0.00000000E+00
 0.10000000E+01
 0.70282826E+00
 0.48494564E+00
 0.44743732E+00
 0.45280174E+00
 0.46009882E+00
 0.46617428E+00
 0.47060972E+00
 0.47662028E+00
 0.48431541E+00
 0.49242743E+00
 0.49733239E+00
 0.50395343E+00
 0.51212000E+00
 0.52061662E+00
 0.48826930E+00
 0.27623675E+00
 0.00000000E+00
 0.10000000E+01
 0.72319787E+00
 0.51106440E+00
 0.47872377E+00
 0.48713845E+00
 0.49526813E+00
 0.50186368E+00
 0.50675747E+00
 0.51479209E+00
 0.52254723E+00
 0.52858595E+00
 0.53303140E+00
 0.53914521E+00
 0.54649118E+00
 0.55191259E+00
 0.51440582E+00
 0.29663488E+00
 0.00000000E+00
 0.10000000E+01
 0.74361504E+00
 0.54338039E+00
 0.51074820E+00
 0.51931970E+00
 0.52761603E+00
 0.53534197E+00
 0.54235980E+00
 0.55251306E+00
 0.55934634E+00
 0.56509004E+00
 0.56930593E+00
 0.57434212E+00
 0.57989996E+00
 0.58099757E+00
 0.53909027E+00
 0.31595404E+00
 0.00000000E+00
 0.10000000E+01
 0.76336321E+00
 0.58256576E+00
 0.54649728E+00
 0.55090437E+00
 0.55840518E+00
 0.56735032E+00
 0.57750689E+00
 0.58860774E+00
 0.59615493E+00
 0.60165478E+00
 0.60531887E+00
 0.60899237E+00
 0.61194588E+00
 0.60843805E+00
 0.56181186E+00
 0.33361865E+00
 0.00000000E+00
 0.10000000E+01
 0.78345382E+00
 0.62743320E+00
 0.58774923E+00
 0.58475139E+00
 0.58873497E+00
 0.59692653E+00
 0.60839712E+00
 0.62039250E+00
 0.62926090E+00
 0.63525301E+00
 0.63865302E+00
 0.64058364E+00
 0.64049103E+00
 0.63257884E+00
 0.58132696E+00
 0.34859132E+00
 0.00000000E+00
 0.10000000E+01
 0.80484371E+00
 0.67697623E+00
 0.63647834E+00
 0.62699436E+00
 0.62632603E+00
 0.63112112E+00
 0.63984360E+00
 0.65058868E+00
 0.65902302E+00
 0.66443212E+00
 0.66682201E+00
 0.66673960E+00
 0.66342082E+00
 0.65060327E+00
 0.59347349E+00
 0.35703714E+00
 0.00000000E+00
 0.10000000E+01
 0.82899128E+00
 0.73159440E+00
 0.69459983E+00
 0.68161690E+00
 0.67721524E+00
 0.67801080E+00
 0.68194846E+00
 0.68634794E+00
 0.68906805E+00
 0.68932336E+00
 0.68703368E+00
 0.68229342E+00
 0.67419756E+00
 0.65562095E+00
 0.59138497E+00
 0.35347396E+00
 0.00000000E+00
 0.10000000E+01
 0.85914575E+00
 0.79283418E+00
 0.76350451E+00
 0.75001637E+00
 0.74253348E+00
 0.73823206E+00
 0.73262776E+00
 0.72478517E+00
 0.71442907E+00
 0.70140928E+00
 0.68609603E+00
 0.66861257E+00
 0.64846591E+00
 0.61820494E+00
 0.54352360E+00
 0.31870974E+00
 0.00000000E+00
 0.10000000E+01
 0.90694570E+00
 0.86706617E+00
 0.84091753E+00
 0.81933144E+00
 0.79698348E+00
 0.77151653E+00
 0.74175562E+00
 0.70782631E+00
 0.66946609E+00
 0.62684770E+00
 0.58043325E+00
 0.53094462E+00
 0.47906595E+00
 0.42346931E+00
 0.35387602E+00
 0.21847628E+00
 0.00000000E+00
 0.10000000E+01
 0.96875000E+00
 0.90625000E+00
 0.84375000E+00
 0.78125000E+00
 0.71875000E+00
 0.65625000E+00
 0.59375000E+00
 0.53125000E+00
 0.46875000E+00
 0.40625000E+00
 0.34375000E+00
 0.28125000E+00
 0.21875000E+00
 0.15625000E+00
 0.93750000E-01
 0.31250000E-01
 0.00000000E+00
 0.10000000E+01
 0.96875000E+00
 0.90625000E+00
 0.84375000E+00
 0.78125000E+00
 0.71875000E+00
 0.65625000E+00
 0.59375000E+00
 0.53125000E+00
 0.46875000E+00
 0.40625000E+00
 0.34375000E+00
 0.28125000E+00
 0.21875000E+00
 0.15625000E+00
 0.93750000E-01
 0.31250000E-01
 0.00000000E+00
 0.10000000E+01
 0.77553274E+00
 0.63884428E+00
 0.56909521E+00
 0.51440838E+00
 0.46407773E+00
 0.41500577E+00
 0.36866064E+00
 0.32581771E+00
 0.28697798E+00
 0.25232208E+00
 0.22173328E+00
 0.19508373E+00
 0.17202209E+00
 0.15167864E+00
 0.12854206E+00
 0.93662860E-01

 0.00000000E+00
 0.10000000E+01
 0.66610038E+00
 0.43510672E+00
 0.36175069E+00
 0.33345933E+00
 0.31448096E+00
 0.29847819E+00
 0.28407739E+00
 0.27134604E+00
 0.26076106E+00
 0.25237103E+00
 0.24602549E+00
 0.24112019E+00
 0.23624011E+00
 0.22642013E+00
 0.20251122E+00
 0.14450036E+00
 0.00000000E+00
 0.10000000E+01
 0.62724347E+00
 0.38412478E+00
 0.32223710E+00
 0.30597854E+00
 0.29936684E+00
 0.29537917E+00
 0.29311214E+00
 0.29271893E+00
 0.29438004E+00
 0.29801922E+00
 0.30233065E+00
 0.30564270E+00
 0.30495105E+00
 0.29566234E+00
 0.26417668E+00
 0.17591587E+00
 0.00000000E+00
 0.10000000E+01
 0.62381826E+00
 0.38449623E+00
 0.33115929E+00
 0.32108520E+00
 0.31886663E+00
 0.31875751E+00
 0.32033160E+00
 0.32431192E+00
 0.33094184E+00
 0.34030046E+00
 0.35065757E+00
 0.35944513E+00
 0.36206736E+00
 0.35567584E+00
 0.32025458E+00
 0.20077304E+00
 0.00000000E+00
 0.10000000E+01
 0.63366961E+00
 0.40007151E+00
 0.35434175E+00
 0.35008829E+00
 0.35108083E+00
 0.35244657E+00
 0.35420533E+00
 0.35795298E+00
 0.36421416E+00
 0.37384604E+00
 0.38597186E+00
 0.39836260E+00
 0.40627905E+00
 0.40610323E+00
 0.37185506E+00
 0.22277405E+00
 0.00000000E+00
 0.10000000E+01
 0.65067996E+00
 0.42336984E+00
 0.38381219E+00
 0.38529726E+00
 0.38991166E+00
 0.39314720E+00
 0.39432824E+00
 0.39668293E+00
 0.40030706E+00
 0.40724064E+00
 0.41644197E+00
 0.42832716E+00
 0.44017133E+00
 0.44765246E+00
 0.41881990E+00
 0.24360175E+00
 0.00000000E+00
 0.10000000E+01
 0.67038224E+00
 0.44989374E+00
 0.41714114E+00
 0.42491155E+00
 0.43158103E+00
 0.43520179E+00
 0.43659792E+00
 0.43868867E+00
 0.44090633E+00
 0.44567566E+00
 0.45070867E+00
 0.45948393E+00
 0.47034424E+00
 0.48262389E+00
 0.45960653E+00
 0.26441030E+00
 0.00000000E+00
 0.10000000E+01
 0.69149185E+00
 0.47797361E+00
 0.45113046E+00
 0.46315192E+00
 0.47025834E+00
 0.47440638E+00
 0.47583528E+00
 0.47868528E+00
 0.48108249E+00
 0.48497338E+00
 0.48744635E+00
 0.49309043E+00
 0.50160591E+00
 0.51455666E+00
 0.49263471E+00
 0.28637653E+00
 0.00000000E+00
 0.10000000E+01
 0.71320532E+00
 0.50671081E+00
 0.48467695E+00
 0.49755819E+00
 0.50605181E+00
 0.51167687E+00
 0.51414489E+00
 0.51801401E+00
 0.52043624E+00
 0.52331327E+00
 0.52475110E+00
 0.52892672E+00
 0.53606487E+00
 0.54819122E+00
 0.52143415E+00
 0.30812116E+00
 0.00000000E+00
 0.10000000E+01
 0.73517948E+00
 0.53961711E+00
 0.51651471E+00
 0.52879641E+00
 0.53964574E+00
 0.54838379E+00
 0.55340930E+00
 0.55819954E+00
 0.56043838E+00
 0.56257610E+00
 0.56400840E+00
 0.56767627E+00
 0.57439725E+00
 0.58224551E+00
 0.54955849E+00
 0.32925307E+00
 0.00000000E+00
 0.10000000E+01
 0.75598811E+00
 0.58033613E+00
 0.55142563E+00
 0.55896015E+00
 0.57081127E+00
 0.58267904E+00
 0.59187928E+00
 0.59883451E+00
 0.60249202E+00
 0.60489866E+00
 0.60614058E+00
 0.60944078E+00
 0.61409932E+00
 0.61562551E+00
 0.57611441E+00
 0.34897528E+00
 0.00000000E+00
 0.10000000E+01
 0.77681450E+00
 0.62730528E+00
 0.59297345E+00
 0.59281796E+00
 0.60075450E+00
 0.61315940E+00
 0.62529083E+00
 0.63495089E+00
 0.64125160E+00
 0.64504857E+00
 0.64686104E+00
 0.64828092E+00
 0.64931992E+00
 0.64510388E+00
 0.59942629E+00
 0.36599983E+00
 0.00000000E+00
 0.10000000E+01
 0.79881477E+00
 0.67897842E+00
 0.64347181E+00
 0.63707990E+00
 0.63971536E+00
 0.64851884E+00
 0.65887262E+00
 0.66826603E+00
 0.67493079E+00
 0.67894799E+00
 0.68056041E+00
 0.68049063E+00
 0.67831047E+00
 0.66827685E+00
 0.61500939E+00
 0.37586679E+00
 0.00000000E+00
 0.10000000E+01
 0.82367919E+00
 0.73517957E+00
 0.70362790E+00
 0.69433677E+00
 0.69366143E+00
 0.69699216E+00
 0.70132260E+00
 0.70499368E+00
 0.70666629E+00
 0.70628298E+00
 0.70402221E+00
 0.70003943E+00
 0.69343923E+00
 0.67721388E+00
 0.61541164E+00
 0.37247238E+00
 0.00000000E+00
 0.10000000E+01
 0.85512474E+00
 0.79700639E+00
 0.77307548E+00
 0.76327104E+00
 0.75841307E+00
 0.75353218E+00
 0.74720907E+00
 0.73883914E+00
 0.72826781E+00
 0.71554031E+00
 0.70113134E+00
 0.68511315E+00
 0.66615085E+00
 0.63787432E+00
 0.56456032E+00
 0.33368515E+00
 0.00000000E+00
 0.10000000E+01
 0.90607891E+00
 0.87120934E+00

 0.84810478E+00
 0.82780439E+00
 0.80477571E+00
 0.77815913E+00
 0.74760236E+00
 0.71297622E+00
 0.67416211E+00
 0.63133430E+00
 0.58498975E+00
 0.53589898E+00
 0.48550371E+00
 0.43077620E+00
 0.36102287E+00
 0.22435586E+00
 0.00000000E+00
 0.10000000E+01
 0.96875000E+00
 0.90625000E+00
 0.84375000E+00
 0.78125000E+00
 0.71875000E+00
 0.65625000E+00
 0.59375000E+00
 0.53125000E+00
 0.46875000E+00
 0.40625000E+00
 0.34375000E+00
 0.28125000E+00
 0.21875000E+00
 0.15625000E+00
 0.93750000E-01
 0.31250000E-01
 0.00000000E+00
 0.10000000E+01
 0.96875000E+00
 0.90625000E+00
 0.84375000E+00
 0.78125000E+00
 0.71875000E+00
 0.65625000E+00
 0.59375000E+00
 0.53125000E+00
 0.46875000E+00
 0.40625000E+00
 0.34375000E+00
 0.28125000E+00
 0.21875000E+00
 0.15625000E+00
 0.93750000E-01
 0.31250000E-01
 0.00000000E+00
 0.10000000E+01
 0.77408602E+00
 0.63717057E+00
 0.56756063E+00
 0.51318964E+00
 0.46383648E+00
 0.41503259E+00
 0.36842820E+00
 0.32485254E+00
 0.28486039E+00
 0.24881594E+00
 0.21677656E+00
 0.18870719E+00
 0.16439157E+00
 0.14378336E+00
 0.12311096E+00
 0.92259876E-01
 0.00000000E+00
 0.10000000E+01
 0.66287527E+00
 0.42954376E+00
 0.35440429E+00
 0.32517298E+00
 0.30510807E+00
 0.28851836E+00
 0.27349461E+00
 0.25988143E+00
 0.24817552E+00
 0.23842531E+00
 0.23071111E+00
 0.22478958E+00
 0.21983370E+00
 0.21430941E+00
 0.19592429E+00
 0.14448243E+00
 0.00000000E+00
 0.10000000E+01
 0.62201807E+00
 0.37573395E+00
 0.31248341E+00
 0.29542689E+00
 0.28794719E+00
 0.28285366E+00
 0.27914354E+00
 0.27694268E+00
 0.27660215E+00
 0.27845551E+00
 0.28182389E+00
 0.28580857E+00
 0.28804379E+00
 0.28369233E+00
 0.25846978E+00
 0.17674177E+00
 0.00000000E+00
 0.10000000E+01
 0.61803768E+00
 0.37665268E+00
 0.32358601E+00
 0.31359089E+00
 0.31060816E+00
 0.30901754E+00
 0.30850474E+00
 0.30992368E+00
 0.31370894E+00
 0.32046774E+00
 0.32987552E+00
 0.34013444E+00
 0.34702497E+00
 0.34535387E+00
 0.31638199E+00
 0.20218120E+00
 0.00000000E+00
 0.10000000E+01
 0.62802910E+00
 0.39378109E+00
 0.34998034E+00
 0.34680749E+00
 0.34745041E+00
 0.34744298E+00
 0.34697721E+00
 0.34790901E+00
 0.35092875E+00
 0.35741787E+00
 0.36752820E+00
 0.38100181E+00
 0.39384613E+00
 0.39733682E+00
 0.37000254E+00
 0.22468878E+00
 0.00000000E+00
 0.10000000E+01
 0.64552270E+00
 0.41889785E+00
 0.38261890E+00
 0.38609413E+00
 0.39094204E+00
 0.39314823E+00
 0.39260888E+00
 0.39240025E+00
 0.39238233E+00
 0.39546695E+00
 0.40175832E+00
 0.41313393E+00
 0.42770338E+00
 0.43943151E+00
 0.41846430E+00
 0.24604738E+00
 0.00000000E+00
 0.10000000E+01
 0.66578023E+00
 0.44733503E+00
 0.41917551E+00
 0.42932997E+00
 0.43450684E+00
 0.43698693E+00
 0.43716995E+00
 0.43775284E+00
 0.43717871E+00
 0.43849921E+00
 0.44055504E+00
 0.44773292E+00
 0.45900670E+00
 0.47443493E+00
 0.45981756E+00
 0.26755412E+00
 0.00000000E+00
 0.10000000E+01
 0.68737190E+00
 0.47715892E+00
 0.45568646E+00
 0.46946267E+00
 0.47532800E+00
 0.47816118E+00
 0.47813556E+00
 0.47927542E+00
 0.47957050E+00
 0.48093292E+00
 0.48123593E+00
 0.48527191E+00
 0.49281037E+00
 0.50776799E+00
 0.49202398E+00
 0.29042623E+00
 0.00000000E+00
 0.10000000E+01
 0.70927347E+00
 0.50732342E+00
 0.49137099E+00
 0.50629040E+00
 0.51383325E+00
 0.51787616E+00
 0.51818637E+00
 0.51955366E+00
 0.51985955E+00
 0.52101578E+00
 0.52099867E+00
 0.52384721E+00
 0.52972987E+00
 0.54358262E+00
 0.52228434E+00
 0.31237250E+00
 0.00000000E+00
 0.10000000E+01
 0.73211784E+00
 0.53940778E+00
 0.52459896E+00
 0.54002393E+00
 0.55132321E+00
 0.55853807E+00
 0.56062026E+00
 0.56197338E+00
 0.56142541E+00
 0.56204817E+00
 0.56226521E+00
 0.56478281E+00
 0.57000645E+00
 0.58022403E+00
 0.55218749E+00
 0.33400116E+00
 0.00000000E+00
 0.10000000E+01
 0.75359501E+00
 0.58069080E+00
 0.55953835E+00
 0.57126482E+00
 0.58588346E+00
 0.59730678E+00
 0.60365600E+00
 0.60680769E+00
 0.60686291E+00
 0.60672130E+00
 0.60623989E+00
 0.60849729E+00
 0.61336902E+00
 0.61687273E+00
 0.58068103E+00
 0.35428762E+00
 0.00000000E+00
 0.10000000E+01
 0.77492578E+00
 0.62914441E+00
 0.60164100E+00
 0.60508918E+00
 0.61795813E+00
 0.63147906E+00

 0.64165594E+00
 0.64822189E+00
 0.65132942E+00
 0.65234599E+00
 0.65195427E+00
 0.65200116E+00
 0.65267923E+00
 0.64953358E+00
 0.60582132E+00
 0.37179638E+00
 0.00000000E+00
 0.10000000E+01
 0.79740787E+00
 0.68281804E+00
 0.65370308E+00
 0.65200508E+00
 0.65889508E+00
 0.66918211E+00
 0.67863630E+00
 0.68545145E+00