# vtk DataFile Version 2.0
Thermally Driven Cavity
ASCII
DATASET STRUCTURED_POINTS
DIMENSIONS 18 18 10
SPACING 1.0 1.0 1.0
ORIGIN 0.0 0.0 0.0
POINT_DATA 3240 
SCALARS velocity float 
LOOKUP_TABLE default 
1 2 3 4 5 6 7 8 9 10 11 12 13 14 15 16 17 18
1 2 3 4 5 6 7 8 9 10 11 12 13 14 15 16 17 18
1 2 3 4 5 6 7 8 9 10 11 12 13 14 15 16 17 18
1 2 3 4 5 6 7 8 9 10 11 12 13 14 15 16 17 18
1 2 3 4 5 6 7 8 9 10 11 12 13 14 15 16 17 18
1 2 3 4 5 6 7 8 9 10 11 12 13 14 15 16 17 18
1 2 3 4 5 6 7 8 9 10 11 12 13 14 15 16 17 18
1 2 3 4 5 6 7 8 9 10 11 12 13 14 15 16 17 18
1 2 3 4 5 6 7 8 9 10 11 12 13 14 15 16 17 18
1 2 3 4 5 6 7 8 9 10 11 12 13 14 15 16 17 18
1 2 3 4 5 6 7 8 9 10 11 12 13 14 15 16 17 18
1 2 3 4 5 6 7 8 9 10 11 12 13 14 15 16 17 18
1 2 3 4 5 6 7 8 9 10 11 12 13 14 15 16 17 18
1 2 3 4 5 6 7 8 9 10 11 12 13 14 15 16 17 18
1 2 3 4 5 6 7 8 9 10 11 12 13 14 15 16 17 18
1 2 3 4 5 6 7 8 9 10 11 12 13 14 15 16 17 18
1 2 3 4 5 6 7 8 9 10 11 12 13 14 15 16 17 18
1 2 3 4 5 6 7 8 9 10 11 12 13 14 15 16 17 18
1 2 3 4 5 6 7 8 9 10 11 12 13 14 15 16 17 18
1 2 3 4 5 6 7 8 9 10 11 12 13 14 15 16 17 18
1 2 3 4 5 6 7 8 9 10 11 12 13 14 15 16 17 18
1 2 3 4 5 6 7 8 9 10 11 12 13 14 15 16 17 18
1 2 3 4 5 6 7 8 9 10 11 12 13 14 15 16 17 18
1 2 3 4 5 6 7 8 9 10 11 12 13 14 15 16 17 18
1 2 3 4 5 6 7 8 9 10 11 12 13 14 15 16 17 18
1 2 3 4 5 6 7 8 9 10 11 12 13 14 15 16 17 18
1 2 3 4 5 6 7 8 9 10 11 12 13 14 15 16 17 18
1 2 3 4 5 6 7 8 9 10 11 12 13 14 15 16 17 18
1 2 3 4 5 6 7 8 9 10 11 12 13 14 15 16 17 18
1 2 3 4 5 6 7 8 9 10 11 12 13 14 15 16 17 18
1 2 3 4 5 6 7 8 9 10 11 12 13 14 15 16 17 18
1 2 3 4 5 6 7 8 9 10 11 12 13 14 15 16 17 18
1 2 3 4 5 6 7 8 9 10 11 12 13 14 15 16 17 18
1 2 3 4 5 6 7 8 9 10 11 12 13 14 15 16 17 18
1 2 3 4 5 6 7 8 9 10 11 12 13 14 15 16 17 18
1 2 3 4 5 6 7 8 9 10 11 12 13 14 15 16 17 18
1 2 3 4 5 6 7 8 9 10 11 12 13 14 15 16 17 18
1 2 3 4 5 6 7 8 9 10 11 12 13 14 15 16 17 18
1 2 3 4 5 6 7 8 9 10 11 12 13 14 15 16 17 18
1 2 3 4 5 6 7 8 9 10 11 12 13 14 15 16 17 18
1 2 3 4 5 6 7 8 9 10 11 12 13 14 15 16 17 18
1 2 3 4 5 6 7 8 9 10 11 12 13 14 15 16 17 18
1 2 3 4 5 6 7 8 9 10 11 12 13 14 15 16 17 18
1 2 3 4 5 6 7 8 9 10 11 12 13 14 15 16 17 18
1 2 3 4 5 6 7 8 9 10 11 12 13 14 15 16 17 18
1 2 3 4 5 6 7 8 9 10 11 12 13 14 15 16 17 18
1 2 3 4 5 6 7 8 9 10 11 12 13 14 15 16 17 18
1 2 3 4 5 6 7 8 9 10 11 12 13 14 15 16 17 18
1 2 3 4 5 6 7 8 9 10 11 12 13 14 15 16 17 18
1 2 3 4 5 6 7 8 9 10 11 12 13 14 15 16 17 18
1 2 3 4 5 6 7 8 9 10 11 12 13 14 15 16 17 18
1 2 3 4 5 6 7 8 9 10 11 12 13 14 15 16 17 18
1 2 3 4 5 6 7 8 9 10 11 12 13 14 15 16 17 18
1 2 3 4 5 6 7 8 9 10 11 12 13 14 15 16 17 18
1 2 3 4 5 6 7 8 9 10 11 12 13 14 15 16 17 18
1 2 3 4 5 6 7 8 9 10 11 12 13 14 15 16 17 18
1 2 3 4 5 6 7 8 9 10 11 12 13 14 15 16 17 18
1 2 3 4 5 6 7 8 9 10 11 12 13 14 15 16 17 18
1 2 3 4 5 6 7 8 9 10 11 12 13 14 15 16 17 18
1 2 3 4 5 6 7 8 9 10 11 12 13 14 15 16 17 18
1 2 3 4 5 6 7 8 9 10 11 12 13 14 15 16 17 18
1 2 3 4 5 6 7 8 9 10 11 12 13 14 15 16 17 18
1 2 3 4 5 6 7 8 9 10 11 12 13 14 15 16 17 18
1 2 3 4 5 6 7 8 9 10 11 12 13 14 15 16 17 18
1 2 3 4 5 6 7 8 9 10 11 12 13 14 15 16 17 18
1 2 3 4 5 6 7 8 9 10 11 12 13 14 15 16 17 18
1 2 3 4 5 6 7 8 9 10 11 12 13 14 15 16 17 18
1 2 3 4 5 6 7 8 9 10 11 12 13 14 15 16 17 18
1 2 3 4 5 6 7 8 9 10 11 12 13 14 15 16 17 18
1 2 3 4 5 6 7 8 9 10 11 12 13 14 15 16 17 18
1 2 3 4 5 6 7 8 9 10 11 12 13 14 15 16 17 18
1 2 3 4 5 6 7 8 9 10 11 12 13 14 15 16 17 18
1 2 3 4 5 6 7 8 9 10 11 12 13 14 15 16 17 18
1 2 3 4 5 6 7 8 9 10 11 12 13 14 15 16 17 18
1 2 3 4 5 6 7 8 9 10 11 12 13 14 15 16 17 18
1 2 3 4 5 6 7 8 9 10 11 12 13 14 15 16 17 18
1 2 3 4 5 6 7 8 9 10 11 12 13 14 15 16 17 18
1 2 3 4 5 6 7 8 9 10 11 12 13 14 15 16 17 18
1 2 3 4 5 6 7 8 9 10 11 12 13 14 15 16 17 18
1 2 3 4 5 6 7 8 9 10 11 12 13 14 15 16 17 18
1 2 3 4 5 6 7 8 9 10 11 12 13 14 15 16 17 18
1 2 3 4 5 6 7 8 9 10 11 12 13 14 15 16 17 18
1 2 3 4 5 6 7 8 9 10 11 12 13 14 15 16 17 18
1 2 3 4 5 6 7 8 9 10 11 12 13 14 15 16 17 18
1 2 3 4 5 6 7 8 9 10 11 12 13 14 15 16 17 18
1 2 3 4 5 6 7 8 9 10 11 12 13 14 15 16 17 18
1 2 3 4 5 6 7 8 9 10 11 12 13 14 15 16 17 18
1 2 3 4 5 6 7 8 9 10 11 12 13 14 15 16 17 18
1 2 3 4 5 6 7 8 9 10 11 12 13 14 15 16 17 18
1 2 3 4 5 6 7 8 9 10 11 12 13 14 15 16 17 18
1 2 3 4 5 6 7 8 9 10 11 12 13 14 15 16 17 18
1 2 3 4 5 6 7 8 9 10 11 12 13 14 15 16 17 18
1 2 3 4 5 6 7 8 9 10 11 12 13 14 15 16 17 18
1 2 3 4 5 6 7 8 9 10 11 12 13 14 15 16 17 18
1 2 3 4 5 6 7 8 9 10 11 12 13 14 15 16 17 18
1 2 3 4 5 6 7 8 9 10 11 12 13 14 15 16 17 18
1 2 3 4 5 6 7 8 9 10 11 12 13 14 15 16 17 18
1 2 3 4 5 6 7 8 9 10 11 12 13 14 15 16 17 18
1 2 3 4 5 6 7 8 9 10 11 12 13 14 15 16 17 18
1 2 3 4 5 6 7 8 9 10 11 12 13 14 15 16 17 18
1 2 3 4 5 6 7 8 9 10 11 12 13 14 15 16 17 18
1 2 3 4 5 6 7 8 9 10 11 12 13 14 15 16 17 18
1 2 3 4 5 6 7 8 9 10 11 12 13 14 15 16 17 18
1 2 3 4 5 6 7 8 9 10 11 12 13 14 15 16 17 18
1 2 3 4 5 6 7 8 9 10 11 12 13 14 15 16 17 18
1 2 3 4 5 6 7 8 9 10 11 12 13 14 15 16 17 18
1 2 3 4 5 6 7 8 9 10 11 12 13 14 15 16 17 18
1 2 3 4 5 6 7 8 9 10 11 12 13 14 15 16 17 18
1 2 3 4 5 6 7 8 9 10 11 12 13 14 15 16 17 18
1 2 3 4 5 6 7 8 9 10 11 12 13 14 15 16 17 18
1 2 3 4 5 6 7 8 9 10 11 12 13 14 15 16 17 18
1 2 3 4 5 6 7 8 9 10 11 12 13 14 15 16 17 18
1 2 3 4 5 6 7 8 9 10 11 12 13 14 15 16 17 18
1 2 3 4 5 6 7 8 9 10 11 12 13 14 15 16 17 18
1 2 3 4 5 6 7 8 9 10 11 12 13 14 15 16 17 18
1 2 3 4 5 6 7 8 9 10 11 12 13 14 15 16 17 18
1 2 3 4 5 6 7 8 9 10 11 12 13 14 15 16 17 18
1 2 3 4 5 6 7 8 9 10 11 12 13 14 15 16 17 18
1 2 3 4 5 6 7 8 9 10 11 12 13 14 15 16 17 18
1 2 3 4 5 6 7 8 9 10 11 12 13 14 15 16 17 18
1 2 3 4 5 6 7 8 9 10 11 12 13 14 15 16 17 18
1 2 3 4 5 6 7 8 9 10 11 12 13 14 15 16 17 18
1 2 3 4 5 6 7 8 9 10 11 12 13 14 15 16 17 18
1 2 3 4 5 6 7 8 9 10 11 12 13 14 15 16 17 18
1 2 3 4 5 6 7 8 9 10 11 12 13 14 15 16 17 18
1 2 3 4 5 6 7 8 9 10 11 12 13 14 15 16 17 18
1 2 3 4 5 6 7 8 9 10 11 12 13 14 15 16 17 18
1 2 3 4 5 6 7 8 9 10 11 12 13 14 15 16 17 18
1 2 3 4 5 6 7 8 9 10 11 12 13 14 15 16 17 18
1 2 3 4 5 6 7 8 9 10 11 12 13 14 15 16 17 18
1 2 3 4 5 6 7 8 9 10 11 12 13 14 15 16 17 18
1 2 3 4 5 6 7 8 9 10 11 12 13 14 15 16 17 18
1 2 3 4 5 6 7 8 9 10 11 12 13 14 15 16 17 18
1 2 3 4 5 6 7 8 9 10 11 12 13 14 15 16 17 18
1 2 3 4 5 6 7 8 9 10 11 12 13 14 15 16 17 18
1 2 3 4 5 6 7 8 9 10 11 12 13 14 15 16 17 18
1 2 3 4 5 6 7 8 9 10 11 12 13 14 15 16 17 18
1 2 3 4 5 6 7 8 9 10 11 12 13 14 15 16 17 18
1 2 3 4 5 6 7 8 9 10 11 12 13 14 15 16 17 18
1 2 3 4 5 6 7 8 9 10 11 12 13 14 15 16 17 18
1 2 3 4 5 6 7 8 9 10 11 12 13 14 15 16 17 18
1 2 3 4 5 6 7 8 9 10 11 12 13 14 15 16 17 18
1 2 3 4 5 6 7 8 9 10 11 12 13 14 15 16 17 18
1 2 3 4 5 6 7 8 9 10 11 12 13 14 15 16 17 18
1 2 3 4 5 6 7 8 9 10 11 12 13 14 15 16 17 18
1 2 3 4 5 6 7 8 9 10 11 12 13 14 15 16 17 18
1 2 3 4 5 6 7 8 9 10 11 12 13 14 15 16 17 18
1 2 3 4 5 6 7 8 9 10 11 12 13 14 15 16 17 18
1 2 3 4 5 6 7 8 9 10 11 12 13 14 15 16 17 18
1 2 3 4 5 6 7 8 9 10 11 12 13 14 15 16 17 18
1 2 3 4 5 6 7 8 9 10 11 12 13 14 15 16 17 18
1 2 3 4 5 6 7 8 9 10 11 12 13 14 15 16 17 18
1 2 3 4 5 6 7 8 9 10 11 12 13 14 15 16 17 18
1 2 3 4 5 6 7 8 9 10 11 12 13 14 15 16 17 18
1 2 3 4 5 6 7 8 9 10 11 12 13 14 15 16 17 18
1 2 3 4 5 6 7 8 9 10 11 12 13 14 15 16 17 18
1 2 3 4 5 6 7 8 9 10 11 12 13 14 15 16 17 18
1 2 3 4 5 6 7 8 9 10 11 12 13 14 15 16 17 18
1 2 3 4 5 6 7 8 9 10 11 12 13 14 15 16 17 18
1 2 3 4 5 6 7 8 9 10 11 12 13 14 15 16 17 18
1 2 3 4 5 6 7 8 9 10 11 12 13 14 15 16 17 18
1 2 3 4 5 6 7 8 9 10 11 12 13 14 15 16 17 18
1 2 3 4 5 6 7 8 9 10 11 12 13 14 15 16 17 18
1 2 3 4 5 6 7 8 9 10 11 12 13 14 15 16 17 18
1 2 3 4 5 6 7 8 9 10 11 12 13 14 15 16 17 18
1 2 3 4 5 6 7 8 9 10 11 12 13 14 15 16 17 18
1 2 3 4 5 6 7 8 9 10 11 12 13 14 15 16 17 18
1 2 3 4 5 6 7 8 9 10 11 12 13 14 15 16 17 18
1 2 3 4 5 6 7 8 9 10 11 12 13 14 15 16 17 18
1 2 3 4 5 6 7 8 9 10 11 12 13 14 15 16 17 18
1 2 3 4 5 6 7 8 9 10 11 12 13 14 15 16 17 18
1 2 3 4 5 6 7 8 9 10 11 12 13 14 15 16 17 18
1 2 3 4 5 6 7 8 9 10 11 12 13 14 15 16 17 18
1 2 3 4 5 6 7 8 9 10 11 12 13 14 15 16 17 18
1 2 3 4 5 6 7 8 9 10 11 12 13 14 15 16 17 18
1 2 3 4 5 6 7 8 9 10 11 12 13 14 15 16 17 18
1 2 3 4 5 6 7 8 9 10 11 12 13 14 15 16 17 18
1 2 3 4 5 6 7 8 9 10 11 12 13 14 15 16 17 18
1 2 3 4 5 6 7 8 9 10 11 12 13 14 15 16 17 18
1 2 3 4 5 6 7 8 9 10 11 12 13 14 15 16 17 18

VECTORS velocity float
  0.00000000E+00  0.00000000E+00  0.00000000E+00  
  0.00000000E+00  0.00000000E+00  0.00000000E+00  
  0.00000000E+00  0.00000000E+00  0.00000000E+00  
  0.00000000E+00  0.00000000E+00  0.00000000E+00  
  0.00000000E+00  0.00000000E+00  0.00000000E+00  
  0.00000000E+00  0.00000000E+00  0.00000000E+00  
  0.00000000E+00  0.00000000E+00  0.00000000E+00  
  0.00000000E+00  0.00000000E+00  0.00000000E+00  
  0.00000000E+00  0.00000000E+00  0.00000000E+00  
  0.00000000E+00  0.00000000E+00  0.00000000E+00  
  0.00000000E+00  0.00000000E+00  0.00000000E+00  
  0.00000000E+00  0.00000000E+00  0.00000000E+00  
  0.00000000E+00  0.00000000E+00  0.00000000E+00  
  0.00000000E+00  0.00000000E+00  0.00000000E+00  
  0.00000000E+00  0.00000000E+00  0.00000000E+00  
  0.00000000E+00  0.00000000E+00  0.00000000E+00  
  0.00000000E+00  0.00000000E+00  0.00000000E+00  
  0.00000000E+00  0.00000000E+00  0.00000000E+00  
  0.00000000E+00  0.00000000E+00  0.00000000E+00  
  0.00000000E+00  0.00000000E+00  0.63020483E-30  
  0.00000000E+00  0.00000000E+00  0.62793450E-30  
  0.00000000E+00  0.00000000E+00  0.62132246E-30  
  0.00000000E+00  0.00000000E+00  0.61845088E-30  
  0.00000000E+00  0.00000000E+00  0.61247087E-30  
  0.00000000E+00  0.00000000E+00  0.60952191E-30  
  0.00000000E+00  0.00000000E+00  0.60248157E-30  
  0.00000000E+00  0.00000000E+00  0.59800433E-30  
  0.00000000E+00  0.00000000E+00  0.58517738E-30  
  0.00000000E+00  0.00000000E+00  0.57499190E-30  
  0.00000000E+00  0.00000000E+00  0.54997764E-30  
  0.00000000E+00  0.00000000E+00  0.52612791E-30  
  0.00000000E+00  0.00000000E+00  0.47376476E-30  
  0.00000000E+00  0.00000000E+00  0.43144940E-30  
  0.00000000E+00  0.00000000E+00  0.35577081E-30  
  0.00000000E+00  0.00000000E+00  0.34208867E-30  
  0.00000000E+00  0.00000000E+00  0.00000000E+00  
  0.00000000E+00  0.00000000E+00  0.00000000E+00  
  0.00000000E+00  0.00000000E+00  0.47639621E-30  
  0.00000000E+00  0.00000000E+00  0.48626548E-30  
  0.00000000E+00  0.00000000E+00  0.49324278E-30  
  0.00000000E+00  0.00000000E+00  0.50167827E-30  
  0.00000000E+00  0.00000000E+00  0.50666358E-30  
  0.00000000E+00  0.00000000E+00  0.51397445E-30  
  0.00000000E+00  0.00000000E+00  0.51711950E-30  
  0.00000000E+00  0.00000000E+00  0.52252688E-30  
  0.00000000E+00  0.00000000E+00  0.52020585E-30  
  0.00000000E+00  0.00000000E+00  0.52118106E-30  
  0.00000000E+00  0.00000000E+00  0.50696935E-30  
  0.00000000E+00  0.00000000E+00  0.49321367E-30  
  0.00000000E+00  0.00000000E+00  0.45361991E-30  
  0.00000000E+00  0.00000000E+00  0.42409790E-30  
  0.00000000E+00  0.00000000E+00  0.36440974E-30  
  0.00000000E+00  0.00000000E+00  0.35627249E-30  
  0.00000000E+00  0.00000000E+00  0.00000000E+00  
  0.00000000E+00  0.00000000E+00  0.00000000E+00  
  0.00000000E+00  0.00000000E+00  0.42795851E-30  
  0.00000000E+00  0.00000000E+00  0.43665228E-30
  0.00000000E+00  0.00000000E+00  0.44596851E-30  
  0.00000000E+00  0.00000000E+00  0.45252372E-30  
  0.00000000E+00  0.00000000E+00  0.45684886E-30  
  0.00000000E+00  0.00000000E+00  0.46207951E-30  
  0.00000000E+00  0.00000000E+00  0.46517172E-30  
  0.00000000E+00  0.00000000E+00  0.47095487E-30  
  0.00000000E+00  0.00000000E+00  0.47194722E-30  
  0.00000000E+00  0.00000000E+00  0.47451300E-30  
  0.00000000E+00  0.00000000E+00  0.46407427E-30  
  0.00000000E+00  0.00000000E+00  0.45492428E-30  
  0.00000000E+00  0.00000000E+00  0.42651735E-30  
  0.00000000E+00  0.00000000E+00  0.40624192E-30  
  0.00000000E+00  0.00000000E+00  0.36029023E-30  
  0.00000000E+00  0.00000000E+00  0.35219608E-30  
  0.00000000E+00  0.00000000E+00  0.00000000E+00  
  0.00000000E+00  0.00000000E+00  0.00000000E+00  
  0.00000000E+00  0.00000000E+00  0.33917995E-30  
  0.00000000E+00  0.00000000E+00  0.34758200E-30  
  0.00000000E+00  0.00000000E+00  0.35878631E-30  
  0.00000000E+00  0.00000000E+00  0.36661271E-30  
  0.00000000E+00  0.00000000E+00  0.37326687E-30  
  0.00000000E+00  0.00000000E+00  0.38019007E-30  
  0.00000000E+00  0.00000000E+00  0.38557400E-30  
  0.00000000E+00  0.00000000E+00  0.39310103E-30  
  0.00000000E+00  0.00000000E+00  0.39697132E-30  
  0.00000000E+00  0.00000000E+00  0.40139086E-30  
  0.00000000E+00  0.00000000E+00  0.39545563E-30  
  0.00000000E+00  0.00000000E+00  0.39315203E-30  
  0.00000000E+00  0.00000000E+00  0.37581468E-30  
  0.00000000E+00  0.00000000E+00  0.36577575E-30  
  0.00000000E+00  0.00000000E+00  0.33399252E-30  
  0.00000000E+00  0.00000000E+00  0.32767474E-30  
  0.00000000E+00  0.00000000E+00  0.00000000E+00  
  0.00000000E+00  0.00000000E+00  0.00000000E+00  
  0.00000000E+00  0.00000000E+00  0.29526000E-30  
  0.00000000E+00  0.00000000E+00  0.30156666E-30  
  0.00000000E+00  0.00000000E+00  0.31010125E-30  
  0.00000000E+00  0.00000000E+00  0.31435159E-30  
  0.00000000E+00  0.00000000E+00  0.31814775E-30  
  0.00000000E+00  0.00000000E+00  0.32102196E-30  
  0.00000000E+00  0.00000000E+00  0.32302420E-30  
  0.00000000E+00  0.00000000E+00  0.32636004E-30  
  0.00000000E+00  0.00000000E+00  0.32695554E-30  
  0.00000000E+00  0.00000000E+00  0.32932206E-30  
  0.00000000E+00  0.00000000E+00  0.32497084E-30  
  0.00000000E+00  0.00000000E+00  0.32474429E-30  
  0.00000000E+00  0.00000000E+00  0.31413477E-30  
  0.00000000E+00  0.00000000E+00  0.30945759E-30  
  0.00000000E+00  0.00000000E+00  0.28781638E-30  
  0.00000000E+00  0.00000000E+00  0.28227783E-30  
  0.00000000E+00  0.00000000E+00  0.00000000E+00  
  0.00000000E+00  0.00000000E+00  0.00000000E+00  
  0.00000000E+00  0.00000000E+00  0.21000980E-30  
  0.00000000E+00  0.00000000E+00  0.21530206E-30  
  0.00000000E+00  0.00000000E+00  0.22364859E-30  
  0.00000000E+00  0.00000000E+00  0.22789017E-30  
  0.00000000E+00  0.00000000E+00  0.23251675E-30  
  0.00000000E+00  0.00000000E+00  0.23570586E-30  
  0.00000000E+00  0.00000000E+00  0.23817230E-30  
  0.00000000E+00  0.00000000E+00  0.24094267E-30  
  0.00000000E+00  0.00000000E+00  0.24163378E-30  
  0.00000000E+00  0.00000000E+00  0.24297771E-30  
  0.00000000E+00  0.00000000E+00  0.24133354E-30  
  0.00000000E+00  0.00000000E+00  0.24356500E-30  
  0.00000000E+00  0.00000000E+00  0.23817394E-30  
  0.00000000E+00  0.00000000E+00  0.23827710E-30  
  0.00000000E+00  0.00000000E+00  0.22447714E-30  
  0.00000000E+00  0.00000000E+00  0.22030403E-30  
  0.00000000E+00  0.00000000E+00  0.00000000E+00  
  0.00000000E+00  0.00000000E+00  0.00000000E+00  
  0.00000000E+00  0.00000000E+00  0.14305012E-30  
  0.00000000E+00  0.00000000E+00  0.14721226E-30  
  0.00000000E+00  0.00000000E+00  0.15326726E-30  
  0.00000000E+00  0.00000000E+00  0.15503755E-30  
  0.00000000E+00  0.00000000E+00  0.15775480E-30  
  0.00000000E+00  0.00000000E+00  0.15801754E-30  
  0.00000000E+00  0.00000000E+00  0.15823497E-30  
  0.00000000E+00  0.00000000E+00  0.15816696E-30  
  0.00000000E+00  0.00000000E+00  0.15641411E-30  
  0.00000000E+00  0.00000000E+00  0.15783029E-30  
  0.00000000E+00  0.00000000E+00  0.15545508E-30  
  0.00000000E+00  0.00000000E+00  0.15686657E-30  
  0.00000000E+00  0.00000000E+00  0.15243876E-30  
  0.00000000E+00  0.00000000E+00  0.15321868E-30  
  0.00000000E+00  0.00000000E+00  0.14348996E-30  
  0.00000000E+00  0.00000000E+00  0.13985513E-30  
  0.00000000E+00  0.00000000E+00  0.00000000E+00  
  0.00000000E+00  0.00000000E+00  0.00000000E+00  
  0.00000000E+00  0.00000000E+00  0.45924864E-31  
  0.00000000E+00  0.00000000E+00  0.49755516E-31  
  0.00000000E+00  0.00000000E+00  0.55907831E-31  
  0.00000000E+00  0.00000000E+00  0.57270223E-31  
  0.00000000E+00  0.00000000E+00  0.60703674E-31  
  0.00000000E+00  0.00000000E+00  0.61038287E-31  
  0.00000000E+00  0.00000000E+00  0.62140719E-31  
  0.00000000E+00  0.00000000E+00  0.62962533E-31  
  0.00000000E+00  0.00000000E+00  0.61773158E-31  
  0.00000000E+00  0.00000000E+00  0.63977283E-31  
  0.00000000E+00  0.00000000E+00  0.63211409E-31  
  0.00000000E+00  0.00000000E+00  0.65151813E-31  
  0.00000000E+00  0.00000000E+00  0.62410134E-31  
  0.00000000E+00  0.00000000E+00  0.62758966E-31  
  0.00000000E+00  0.00000000E+00  0.56784085E-31  
  0.00000000E+00  0.00000000E+00  0.53402878E-31  
  0.00000000E+00  0.00000000E+00  0.00000000E+00  
  0.00000000E+00  0.00000000E+00  0.00000000E+00  
  0.00000000E+00  0.00000000E+00 -0.46476750E-31  
  0.00000000E+00  0.00000000E+00 -0.43087757E-31  
  0.00000000E+00  0.00000000E+00 -0.37138444E-31  
  0.00000000E+00  0.00000000E+00 -0.37454625E-31  
  0.00000000E+00  0.00000000E+00 -0.34704868E-31  
  0.00000000E+00  0.00000000E+00 -0.36645169E-31  
  0.00000000E+00  0.00000000E+00 -0.35890105E-31  
  0.00000000E+00  0.00000000E+00 -0.38080226E-31  
  0.00000000E+00  0.00000000E+00 -0.36944269E-31  
  0.00000000E+00  0.00000000E+00 -0.37761601E-31  
  0.00000000E+00  0.00000000E+00 -0.38852444E-31  
  0.00000000E+00  0.00000000E+00 -0.39199719E-31  
  0.00000000E+00  0.00000000E+00 -0.42604125E-31  
  0.00000000E+00  0.00000000E+00 -0.43976744E-31  
  0.00000000E+00  0.00000000E+00 -0.50110435E-31  
  0.00000000E+00  0.00000000E+00 -0.53956156E-31  
  0.00000000E+00  0.00000000E+00  0.00000000E+00  
  0.00000000E+00  0.00000000E+00  0.00000000E+00  
  0.00000000E+00  0.00000000E+00 -0.15993597E-30  
  0.00000000E+00  0.00000000E+00 -0.15628788E-30  
  0.00000000E+00  0.00000000E+00 -0.14656790E-30  
  0.00000000E+00  0.00000000E+00 -0.14737137E-30  
  0.00000000E+00  0.00000000E+00 -0.14289652E-30  
  0.00000000E+00  0.00000000E+00 -0.14434080E-30  
  0.00000000E+00  0.00000000E+00 -0.14192379E-30  
  0.00000000E+00  0.00000000E+00 -0.14341181E-30  
  0.00000000E+00  0.00000000E+00 -0.14162862E-30  
  0.00000000E+00  0.00000000E+00 -0.14159273E-30  
  0.00000000E+00  0.00000000E+00 -0.14179682E-30  
  0.00000000E+00  0.00000000E+00 -0.14206857E-30  
  0.00000000E+00  0.00000000E+00 -0.14477466E-30  
  0.00000000E+00  0.00000000E+00 -0.14654241E-30  
  0.00000000E+00  0.00000000E+00 -0.15259773E-30  
  0.00000000E+00  0.00000000E+00 -0.15676356E-30  
  0.00000000E+00  0.00000000E+00  0.00000000E+00  
  0.00000000E+00  0.00000000E+00  0.00000000E+00  
  0.00000000E+00  0.00000000E+00 -0.27925075E-30  
  0.00000000E+00  0.00000000E+00 -0.27505052E-30  
  0.00000000E+00  0.00000000E+00 -0.26123425E-30  
  0.00000000E+00  0.00000000E+00 -0.26136820E-30  
  0.00000000E+00  0.00000000E+00 -0.25595628E-30  
  0.00000000E+00  0.00000000E+00 -0.25822217E-30  
  0.00000000E+00  0.00000000E+00 -0.25656601E-30  
  0.00000000E+00  0.00000000E+00 -0.25796571E-30  
  0.00000000E+00  0.00000000E+00 -0.25861814E-30  
  0.00000000E+00  0.00000000E+00 -0.26141574E-30  
  0.00000000E+00  0.00000000E+00 -0.26386379E-30  
  0.00000000E+00  0.00000000E+00 -0.26707881E-30  
  0.00000000E+00  0.00000000E+00 -0.27169434E-30  
  0.00000000E+00  0.00000000E+00 -0.27595654E-30  
  0.00000000E+00  0.00000000E+00 -0.28429135E-30  
  0.00000000E+00  0.00000000E+00 -0.28958417E-30  
  0.00000000E+00  0.00000000E+00  0.00000000E+00  
  0.00000000E+00  0.00000000E+00  0.00000000E+00  
  0.00000000E+00  0.00000000E+00 -0.41720690E-30  
  0.00000000E+00  0.00000000E+00 -0.41162922E-30  
  0.00000000E+00  0.00000000E+00 -0.38997201E-30  
  0.00000000E+00  0.00000000E+00 -0.38527337E-30  
  0.00000000E+00  0.00000000E+00 -0.37470327E-30  
  0.00000000E+00  0.00000000E+00 -0.37448273E-30  
  0.00000000E+00  0.00000000E+00 -0.37016491E-30  
  0.00000000E+00  0.00000000E+00 -0.37251932E-30  
  0.00000000E+00  0.00000000E+00 -0.37312264E-30  
  0.00000000E+00  0.00000000E+00 -0.37647792E-30  
  0.00000000E+00  0.00000000E+00 -0.37848749E-30  
  0.00000000E+00  0.00000000E+00 -0.38138515E-30  
  0.00000000E+00  0.00000000E+00 -0.38518480E-30  
  0.00000000E+00  0.00000000E+00 -0.38944675E-30  
  0.00000000E+00  0.00000000E+00 -0.39797287E-30  
  0.00000000E+00  0.00000000E+00 -0.40427367E-30  
  0.00000000E+00  0.00000000E+00  0.00000000E+00  
  0.00000000E+00  0.00000000E+00  0.00000000E+00  
  0.00000000E+00  0.00000000E+00 -0.57165569E-30  
  0.00000000E+00  0.00000000E+00 -0.56528945E-30  
  0.00000000E+00  0.00000000E+00 -0.53344236E-30  
  0.00000000E+00  0.00000000E+00 -0.52339461E-30  
  0.00000000E+00  0.00000000E+00 -0.50605403E-30  
  0.00000000E+00  0.00000000E+00 -0.50376348E-30  
  0.00000000E+00  0.00000000E+00 -0.49783076E-30  
  0.00000000E+00  0.00000000E+00 -0.50226686E-30  
  0.00000000E+00  0.00000000E+00 -0.50613297E-30  
  0.00000000E+00  0.00000000E+00 -0.51369690E-30  
  0.00000000E+00  0.00000000E+00 -0.51909084E-30  
  0.00000000E+00  0.00000000E+00 -0.52605550E-30  
  0.00000000E+00  0.00000000E+00 -0.53272003E-30  
  0.00000000E+00  0.00000000E+00 -0.54057223E-30  
  0.00000000E+00  0.00000000E+00 -0.55176755E-30  
  0.00000000E+00  0.00000000E+00 -0.56016508E-30  
  0.00000000E+00  0.00000000E+00  0.00000000E+00  
  0.00000000E+00  0.00000000E+00  0.00000000E+00  
  0.00000000E+00  0.00000000E+00 -0.74714088E-30  
  0.00000000E+00  0.00000000E+00 -0.73898795E-30  
  0.00000000E+00  0.00000000E+00 -0.69293338E-30  
  0.00000000E+00  0.00000000E+00 -0.67261570E-30  
  0.00000000E+00  0.00000000E+00 -0.64419944E-30  
  0.00000000E+00  0.00000000E+00 -0.63504576E-30  
  0.00000000E+00  0.00000000E+00 -0.62459989E-30  
  0.00000000E+00  0.00000000E+00 -0.62716246E-30  
  0.00000000E+00  0.00000000E+00 -0.62819350E-30  
  0.00000000E+00  0.00000000E+00 -0.63400990E-30  
  0.00000000E+00  0.00000000E+00 -0.63713091E-30  
  0.00000000E+00  0.00000000E+00 -0.64239926E-30  
  0.00000000E+00  0.00000000E+00 -0.64674300E-30  
  0.00000000E+00  0.00000000E+00 -0.65332027E-30  
  0.00000000E+00  0.00000000E+00 -0.66263100E-30  
  0.00000000E+00  0.00000000E+00 -0.67131759E-30  
  0.00000000E+00  0.00000000E+00  0.00000000E+00  
  0.00000000E+00  0.00000000E+00  0.00000000E+00  
  0.00000000E+00  0.00000000E+00 -0.94307443E-30  
  0.00000000E+00  0.00000000E+00 -0.93487395E-30  
  0.00000000E+00  0.00000000E+00 -0.87501102E-30  
  0.00000000E+00  0.00000000E+00 -0.84541560E-30  
  0.00000000E+00  0.00000000E+00 -0.80575757E-30  
  0.00000000E+00  0.00000000E+00 -0.79197692E-30  
  0.00000000E+00  0.00000000E+00 -0.77775117E-30  
  0.00000000E+00  0.00000000E+00 -0.77876239E-30  
  0.00000000E+00  0.00000000E+00 -0.77645236E-30  
  0.00000000E+00  0.00000000E+00 -0.78189514E-30  
  0.00000000E+00  0.00000000E+00 -0.78506068E-30  
  0.00000000E+00  0.00000000E+00 -0.79241438E-30  
  0.00000000E+00  0.00000000E+00 -0.79742212E-30  
  0.00000000E+00  0.00000000E+00 -0.80589023E-30  
  0.00000000E+00  0.00000000E+00 -0.81287352E-30  
  0.00000000E+00  0.00000000E+00 -0.82274092E-30  
  0.00000000E+00  0.00000000E+00  0.00000000E+00  
  0.00000000E+00  0.00000000E+00  0.00000000E+00  
  0.00000000E+00  0.00000000E+00 -0.11573670E-29  
  0.00000000E+00  0.00000000E+00 -0.11436150E-29  
  0.00000000E+00  0.00000000E+00 -0.10677215E-29  
  0.00000000E+00  0.00000000E+00 -0.10253097E-29  
  0.00000000E+00  0.00000000E+00 -0.97286439E-30  
  0.00000000E+00  0.00000000E+00 -0.94898890E-30  
  0.00000000E+00  0.00000000E+00 -0.92396402E-30  
  0.00000000E+00  0.00000000E+00 -0.91380044E-30  
  0.00000000E+00  0.00000000E+00 -0.90097792E-30  
  0.00000000E+00  0.00000000E+00 -0.89653269E-30  
  0.00000000E+00  0.00000000E+00 -0.88951255E-30  
  0.00000000E+00  0.00000000E+00 -0.88660391E-30  
  0.00000000E+00  0.00000000E+00 -0.88064553E-30  
  0.00000000E+00  0.00000000E+00 -0.87780464E-30  
  0.00000000E+00  0.00000000E+00 -0.87119612E-30  
  0.00000000E+00  0.00000000E+00 -0.86893898E-30  
  0.00000000E+00  0.00000000E+00  0.00000000E+00  
  0.00000000E+00  0.00000000E+00  0.00000000E+00  
  0.00000000E+00  0.00000000E+00  0.00000000E+00  
  0.00000000E+00  0.00000000E+00  0.00000000E+00  
  0.00000000E+00  0.00000000E+00  0.00000000E+00  
  0.00000000E+00  0.00000000E+00  0.00000000E+00  
  0.00000000E+00  0.00000000E+00  0.00000000E+00  
  0.00000000E+00  0.00000000E+00  0.00000000E+00  
  0.00000000E+00  0.00000000E+00  0.00000000E+00  
  0.00000000E+00  0.00000000E+00  0.00000000E+00  
  0.00000000E+00  0.00000000E+00  0.00000000E+00  
  0.00000000E+00  0.00000000E+00  0.00000000E+00  
  0.00000000E+00  0.00000000E+00  0.00000000E+00  
  0.00000000E+00  0.00000000E+00  0.00000000E+00  
  0.00000000E+00  0.00000000E+00  0.00000000E+00  
  0.00000000E+00  0.00000000E+00  0.00000000E+00  
  0.00000000E+00  0.00000000E+00  0.00000000E+00  
  0.00000000E+00  0.00000000E+00  0.00000000E+00  
  0.00000000E+00  0.00000000E+00  0.00000000E+00  
  0.00000000E+00  0.00000000E+00  0.00000000E+00  
  0.00000000E+00  0.63020483E-30  0.00000000E+00  
  0.00000000E+00  0.62793450E-30  0.00000000E+00  
  0.00000000E+00  0.62132246E-30  0.00000000E+00  
  0.00000000E+00  0.61845088E-30  0.00000000E+00  
  0.00000000E+00  0.61247087E-30  0.00000000E+00  
  0.00000000E+00  0.60952191E-30  0.00000000E+00  
  0.00000000E+00  0.60248157E-30  0.00000000E+00  
  0.00000000E+00  0.59800433E-30  0.00000000E+00  
  0.00000000E+00  0.58517738E-30  0.00000000E+00  
  0.00000000E+00  0.57499190E-30  0.00000000E+00  
  0.00000000E+00  0.54997764E-30  0.00000000E+00  
  0.00000000E+00  0.52612791E-30  0.00000000E+00  
  0.00000000E+00  0.47376476E-30  0.00000000E+00  
  0.00000000E+00  0.43144940E-30  0.00000000E+00  
  0.00000000E+00  0.35577081E-30  0.00000000E+00  
  0.00000000E+00  0.34208867E-30  0.00000000E+00  
  0.00000000E+00  0.00000000E+00  0.00000000E+00  
  0.63020483E-30  0.00000000E+00  0.00000000E+00  
 -0.39700456E-01  0.59061965E-01 -0.41610437E-01  
 -0.64749762E-01  0.37134094E-01 -0.47147301E-01  
 -0.73475222E-01  0.32674449E-01 -0.47403400E-01  
 -0.78426682E-01  0.31300882E-01 -0.44963602E-01  
 -0.84402713E-01  0.30330221E-01 -0.41631689E-01  
 -0.92069430E-01  0.28289444E-01 -0.36624438E-01  
 -0.10222214E+00  0.25458489E-01 -0.29495214E-01  
 -0.11675930E+00  0.21265173E-01 -0.20008877E-01  
 -0.13371028E+00  0.16190287E-01 -0.85050474E-02  
 -0.15421872E+00  0.95164893E-02  0.27876091E-02  
 -0.17012093E+00  0.46754101E-03  0.12186217E-01  
 -0.18061703E+00 -0.11561009E-01  0.20536517E-01  
 -0.17660387E+00 -0.24289999E-01  0.26558568E-01  
 -0.15971428E+00 -0.39517219E-01  0.29318490E-01  
 -0.11185517E+00 -0.51451028E-01  0.25358883E-01  
 -0.46276794E-01 -0.61648947E-01  0.16128269E-01  
 -0.34208867E-30  0.00000000E+00  0.00000000E+00  
  0.47639621E-30  0.00000000E+00  0.00000000E+00  
 -0.22043992E-01  0.14653746E+00 -0.35046431E-01  
 -0.48621392E-01  0.11066212E+00 -0.38393619E-01  
 -0.60910403E-01  0.93416137E-01 -0.37209233E-01  
 -0.68376138E-01  0.83905885E-01 -0.33544884E-01  
 -0.74296383E-01  0.76853639E-01 -0.29463012E-01  
 -0.80530607E-01  0.68004819E-01 -0.24060020E-01  
 -0.88206926E-01  0.58031445E-01 -0.17075610E-01  
 -0.99730762E-01  0.44579318E-01 -0.84361407E-02  
 -0.11326256E+00  0.27724574E-01  0.97233963E-03  
 -0.12860494E+00  0.57875602E-02  0.91231131E-02  
 -0.13596982E+00 -0.19938887E-01  0.15876569E-01  
 -0.14148280E+00 -0.50305540E-01  0.22414506E-01  
 -0.13663990E+00 -0.81930050E-01  0.27207522E-01  
 -0.12486006E+00 -0.11954861E+00  0.29337923E-01  
 -0.87617783E-01 -0.15051574E+00  0.25888383E-01  
 -0.33532645E-01 -0.16392357E+00  0.16741403E-01  
 -0.35627249E-30  0.00000000E+00  0.00000000E+00  
  0.42795851E-30  0.00000000E+00  0.00000000E+00  
 -0.13023424E-01  0.22335185E+00 -0.28455301E-01  
 -0.36970882E-01  0.17926619E+00 -0.28213789E-01  
 -0.49953503E-01  0.15015715E+00 -0.25842543E-01  
 -0.58700835E-01  0.13078871E+00 -0.22570451E-01  
 -0.62711686E-01  0.11542745E+00 -0.19446650E-01  
 -0.64871218E-01  0.98586349E-01 -0.15522642E-01  
 -0.65442701E-01  0.81300021E-01 -0.10763166E-01  
 -0.67354094E-01  0.60198554E-01 -0.54054826E-02  
 -0.69351252E-01  0.35134614E-01  0.42618080E-03  
 -0.74124218E-01  0.56397543E-03  0.66113528E-02  
 -0.75871447E-01 -0.38021275E-01  0.13303951E-01  
 -0.80823388E-01 -0.80663855E-01  0.19886967E-01  
 -0.80984918E-01 -0.12385239E+00  0.24654145E-01  
 -0.81037667E-01 -0.17708578E+00  0.26782863E-01  
 -0.61199940E-01 -0.22372239E+00  0.23691864E-01  
 -0.25311226E-01 -0.24022202E+00  0.14360089E-01  
 -0.35219608E-30  0.00000000E+00  0.00000000E+00  
  0.33917995E-30  0.00000000E+00  0.00000000E+00  
 -0.58996838E-02  0.27493790E+00 -0.21462606E-01  
 -0.25169712E-01  0.22646031E+00 -0.19531431E-01  
 -0.35769400E-01  0.18675703E+00 -0.16836092E-01  
 -0.43473158E-01  0.15963744E+00 -0.14331287E-01  
 -0.45088980E-01  0.13764111E+00 -0.12435172E-01  
 -0.44011372E-01  0.11479285E+00 -0.10119479E-01  
 -0.39622808E-01  0.91829396E-01 -0.72941672E-02  
 -0.35218144E-01  0.64811991E-01 -0.39668564E-02  
 -0.30128587E-01  0.33646816E-01  0.36835907E-04  
 -0.28795408E-01 -0.76231236E-02  0.58931995E-02  
 -0.29200019E-01 -0.53244763E-01  0.12507183E-01  
 -0.34469410E-01 -0.10355079E+00  0.17477610E-01  
 -0.37892507E-01 -0.15302025E+00  0.21503487E-01  
 -0.45938054E-01 -0.21526713E+00  0.23202268E-01  
 -0.39956293E-01 -0.27405528E+00  0.20298549E-01  
 -0.18677951E-01 -0.29354228E+00  0.11442072E-01  
 -0.32767474E-30  0.00000000E+00  0.00000000E+00  
  0.29526000E-30  0.00000000E+00  0.00000000E+00  
 -0.15833733E-02  0.31572248E+00 -0.15896372E-01  
 -0.17331284E-01  0.26644101E+00 -0.13015817E-01  
 -0.26956197E-01  0.21882094E+00 -0.10253791E-01  
 -0.34351804E-01  0.18545332E+00 -0.83531322E-02  
 -0.35191028E-01  0.15799034E+00 -0.73008764E-02  
 -0.33319079E-01  0.13029290E+00 -0.59942128E-02  
 -0.27477089E-01  0.10289695E+00 -0.41925776E-02  
 -0.21832998E-01  0.71407763E-01 -0.17293982E-02  
 -0.14695425E-01  0.35726755E-01  0.25396150E-02  